84
Lattice="10.213696277208369 0.0 0.0 0.0 14.44429597782194 0.0 0.0 0.0 15.987395868621542" Properties=species:S:1:pos:R:3:qe4_forces:R:3 qe4_fenergy=-92025.12381526541 info=pt-doped-rattled-md-it0 free_energy=-91134.10361019285 pbc="T T T"
O        6.21444411       2.63218243       6.99405068       0.00686227       0.04454925       0.01546904
O        1.10524069       9.86973459       6.99834169       0.06540656      -0.21447064       0.07976334
O        1.13026968      13.91578387       7.29348876       0.04750371      -0.02081128      -0.21451538
O        6.21593681       6.73168235       7.29125285       0.01059217       0.05420503       0.08439544
O        3.32485286       8.43754630       5.58668675      -0.00293106      -0.02472836       0.06707109
O        8.43450634       1.19092571       5.54043321       0.00648201       0.02794995      -0.01873692
O        8.44964789       8.16352284       8.53279623       0.01423800      -0.08486364       0.15190361
O        3.36032682       0.91076502       8.52470161       0.11504351      -0.03885246       0.10016427
O        1.00312922      14.12135982      10.54039027       0.72588444      -0.62022366       0.40717278
O        6.14276492       6.72895016      10.65449825       0.08851949       0.48140928       0.20302743
O        3.36520044      11.82404763       5.58713119      -0.01950722      -0.08045034       0.14430832
O        8.43653194       4.59275423       5.53601863      -0.00391245       0.03856938       0.01462546
O        6.11806768       9.89653001      10.86953609       0.16096804      -0.02444965       0.07846493
O        1.04309223       2.69814935      10.91853485       0.17441902      -0.07670244       0.16562611
O        8.51599824       4.75430196       8.59996278       0.20688897       0.06380193       0.14779473
O        3.37713756      11.82832553       8.81782937      -0.59146330       0.75654768       0.37276216
O        5.77690119      10.05119673       7.28168949      -0.21522295      -0.08411519       0.19143896
O        0.62021722       2.82122686       7.37510142      -0.00158277       0.12239095       0.05450945
O        3.96341757       0.96954975       5.12855983       0.00382220      -0.00436753      -0.03538867
O        9.07476143       8.18006216       5.12561384      -0.01224462      -0.05588422       0.00482288
O        8.92878694       1.23832159       8.90762244      -0.08117847      -0.03252060       0.06018619
O        3.80287234       8.46550203       9.03912209       0.13809859       0.15390445       0.14452095
O        0.61904655       6.63136132       7.06200581       0.08548507       0.02181530       0.10250501
O        5.72285300      13.83543349       7.06614518      -0.07756376      -0.04867664      -0.01368727
O        8.13817890       3.10107803      11.00085235      -0.04119499       0.08263012      -0.04116105
O        3.24277143       6.20388227      10.90451354       0.11966481      -0.07769026       0.06820006
O        8.28806232      13.52938974      10.86662855      -0.11179157      -0.29229126      -0.03071671
O        0.95982341       4.61283220       5.04309659       0.01915292       0.07406603       0.01983863
O        6.06290771      11.86381389       4.99113299      -0.01819107      -0.06527132      -0.02402850
O        6.21990220      12.11205091       9.10307894       0.24274867      -0.20481589       0.46596003
O        1.10554948       4.87836296       9.19121759      -0.00260530       0.25935748       0.00809949
O        3.39517876       6.18843792       7.36704346       0.09186681       0.04306444       0.25416308
O        8.51551532      13.39757236       7.32566511      -0.00901120      -0.04383037      -0.01830908
O        0.93634309       1.22197643       4.99761839      -0.00527950       0.04962975      -0.00860677
O        6.03178214       8.43178684       4.95634112      -0.00726105      -0.03909440       0.02637875
O        8.48318730      10.40431612       6.97743235      -0.10163520      -0.00325142      -0.02695699
O        3.35998377       3.18010186       7.00353690      -0.02336310       0.16014991      -0.01066597
O        6.09485794       0.96532055       9.33941959      -0.07550225       0.12163350       0.02838035
O        0.99228055       8.24034522       9.33793303       0.00828178      -0.18880512       0.10855044
O        8.87653302      10.05039584      10.70175520       0.10422353      -0.09320121       0.13769724
O        3.82078374       2.83414621      10.67604695       0.05436881      -0.00930277       0.07244418
O        0.30859530      12.04714534       5.18627781       0.03081673      -0.07228503      -0.01447943
O        5.39976813       4.82988204       5.20595708       0.00971106       0.12498493       0.03927232
O        5.71183131       4.51088314       9.00543969      -0.12376983      -0.06457557       0.00755133
O        0.57993761      11.73460457       9.06377361       0.08747331      -0.26348050      -0.00414153
O        3.77963401      13.81818056      10.92921510      -0.41332055      -0.94763851       0.55947775
O        8.87872061       6.52984550      10.93873267       0.04938472       0.08958984      -0.02885241
In       9.88527358       3.13713404       9.32824364      -0.27832014      -0.04452997      -0.10065715
In       4.67748191      13.44750469       5.27710856       0.04277159       0.12739406      -0.00799279
In       9.78317203       6.19863796       5.29152469      -0.05237800      -0.01339853      -0.10348460
In       4.89928065      10.32871687       9.19518416      -0.09871109      -0.23406091      -0.05079446
In       2.24737415       8.07961616       7.40989273      -0.06617249       0.08762423      -0.27352657
In       2.18782903       1.31755424       6.75006282      -0.00713764      -0.07221252      -0.04305030
In       7.32551136       8.51289453       6.69766789       0.07198678       0.11469641      -0.14188017
In       7.34983575       0.84788414       7.34840284       0.05294313      -0.06084645       0.02803351
In       7.62544304       8.28457222      10.60991858      -0.27934575      -0.26284184       0.00318020
In       1.84762628      11.90075431       7.05393133      -0.16997487       0.15949351       0.44107895
In       6.94815640       4.70798679       7.05799545       0.08268617      -0.19786157      -0.16617350
In       2.51310240       1.09843688      10.59637260      -0.30583146       0.01890892      -0.16864201
In       4.76244682       2.61971005       8.76213952       0.00122976      -0.07857472      -0.18884497
In       9.88674973      14.02830136       5.62408344       0.00155346       0.00979025       0.02763062
In       4.75464971       6.81144537       5.65502880      -0.02667597      -0.03131090      -0.14836526
In       9.82909469       9.87418440       8.78183890       0.25142743       0.10743741      -0.25796831
Pt       2.33136462      12.12703169      10.69099591       0.16015583       0.53092102      -0.34103243
In       2.37295278       4.33613689      10.79141455      -0.15992031      -0.21388700      -0.05342496
In       7.48179733      11.58160054      10.75789127      -0.13012046       0.55575067      -0.05997021
In       7.34440248       5.01238769      10.47451365       0.44314406      -0.57367538      -0.06290384
In       6.96116730      11.93548704       7.01352995       0.08112705       0.13115738      -0.15252531
In       2.52367896       8.11182837      10.75282648      -0.09868975      -0.17550069      -0.41686250
In       7.68356365       1.08985232      10.68072433       0.14122557       0.16758117      -0.02960600
In       1.81793653       4.70937798       7.08659823       0.08108617      -0.20126186      -0.07073645
In       9.81609923       2.88227309       5.44593520      -0.02468619      -0.08524082       0.00904848
In       4.74836764      13.69538934       9.05601705      -0.00542837       0.24867043      -0.48572308
In       9.88760699      10.09838280       5.42312661       0.01923777       0.05089011      -0.03988141
In       4.78881774       6.45490734       9.09159096      -0.29756742       0.02218965      -0.44615457
In       9.86791179      13.69595203       9.03641670       0.14965081      -0.18700972      -0.00796554
In       4.71903282      10.09875503       5.38471590       0.03617182       0.07253160      -0.04933690
In       9.87067980       6.50344647       9.02341469      -0.28042587      -0.01854228       0.00260813
In       4.76328915       2.88789468       5.43591988      -0.05745053      -0.08574578      -0.00183063
C        1.93233594      10.40655402      12.71592622      -0.14767749      -0.50870231      -0.07718144
O        1.80225933      11.76142423      12.66638100       0.11312495       0.99765161      -0.75311191
O        2.65629056      10.00561887      11.50659104      -0.02647877       0.41828946       0.26828589
H        0.94202261       9.89224665      12.70255077       0.03793406       0.05329563      -0.00861165
H        2.50444691      10.07004703      13.60456968       0.01616196       0.17733080       0.03207451
83
Lattice="10.213696277208369 0.0 0.0 0.0 14.44429597782194 0.0 0.0 0.0 15.987395868621542" Properties=species:S:1:pos:R:3:qe4_forces:R:3 qe4_fenergy=-92007.9771882649 info=pt-doped-rattled-md-it0 free_energy=-91117.87784558914 pbc="T T T"
O        6.21444411       2.63218243       6.99405068       0.04799556       0.00729756      -0.02291933
O        1.10524069       9.86973459       6.99834169       0.01567679      -0.24074115       0.05966322
O        1.13026968      13.91578387       7.29348876      -0.04142896       0.03536604      -0.16242380
O        6.21593681       6.73168235       7.29125285       0.03384883       0.05079652       0.03997680
O        3.32485286       8.43754630       5.58668675      -0.01688418      -0.04051159       0.11266009
O        8.43450634       1.19092571       5.54043321       0.00095362       0.00727159       0.01670369
O        8.43877689       8.16672919       8.55102062       0.09894814      -0.02361224      -0.13861410
O        3.36411686       0.89280196       8.52853452       0.08985209       0.09118984       0.00766163
O        0.96557838      14.12433810      10.57066081       0.63586806      -0.54321552       0.13207655
O        6.15750131       6.77332693      10.63808358       0.04306110      -0.16927553      -0.04788603
O        3.36520044      11.82404763       5.58713119      -0.00446086      -0.07063284       0.07317874
O        8.43653194       4.59275423       5.53601863      -0.03149653       0.03135358       0.07284527
O        6.11321807       9.92017448      10.94586864       0.15969020       0.08954793      -0.24970864
O        1.04903085       2.66383809      10.92153872      -0.01176074       0.19804566      -0.02162195
O        8.54679875       4.78066898       8.60673078      -0.13652430      -0.12095036      -0.03811506
O        3.40073972      11.79781869       8.79413476      -0.35835859       0.75258869      -0.03195290
O        5.77690119      10.05119673       7.28168949      -0.05796527      -0.11450692       0.05194014
O        0.62021722       2.82122686       7.37510142      -0.03696527       0.14754637       0.17165586
O        3.96341757       0.96954975       5.12855983       0.00862939       0.01490134      -0.00649975
O        9.07476143       8.18006216       5.12561384      -0.01353994      -0.05271456       0.04049565
O        8.91881928       1.25556462       8.91032085      -0.01170855       0.10946807      -0.11763312
O        3.79509705       8.50763220       9.08486417      -0.01056929      -0.35879027      -0.04091937
O        0.61904655       6.63136132       7.06200581       0.06925318       0.09652976       0.08161248
O        5.72285300      13.83543349       7.06614518       0.02733031      -0.05084485       0.08257638
O        8.16181085       3.12815164      11.02074015       0.01094493      -0.02612112      -0.08908282
O        3.29247001       6.13422555      10.84417924       0.13457284      -0.14033262      -0.02058862
O        8.29470269      13.57909115      10.85983096      -0.08756612      -0.38835179       0.00361986
O        0.95982341       4.61283220       5.04309659       0.00747625       0.07277817       0.03753477
O        6.06290771      11.86381389       4.99113299       0.01669160      -0.04953385       0.02877836
O        6.25481908      12.09831013       9.13372061      -0.06107399       0.14742630      -0.07303116
O        1.10984481       4.91201257       9.19085363      -0.05868081      -0.08677757       0.08607823
O        3.39517876       6.18843792       7.36704346       0.07645510       0.10086567       0.16807740
O        8.51551532      13.39757236       7.32566511      -0.05647994      -0.03375550      -0.06507668
O        0.93634309       1.22197643       4.99761839      -0.01814376       0.05134031       0.00633751
O        6.03178214       8.43178684       4.95634112      -0.00311232      -0.04678328       0.05995839
O        8.48318730      10.40431612       6.97743235      -0.05856176      -0.00794754      -0.04839742
O        3.35998377       3.18010186       7.00353690      -0.02112650       0.12139619       0.03709639
O        6.09596333       0.98368204       9.34525540       0.05282126       0.00937141       0.10716976
O        1.01013839       8.23932441       9.35322714      -0.24850228      -0.14431320      -0.18072825
O        8.87390592      10.09675507      10.68084963       0.14912682      -0.25136366      -0.15947963
O        3.84088994       2.80984943      10.66759090      -0.03843928      -0.02989988       0.12619078
O        0.30859530      12.04714534       5.18627781       0.01653631      -0.06975635       0.02708657
O        5.39976813       4.82988204       5.20595708       0.01064000       0.11423284       0.06143729
O        5.72866713       4.50335298       8.99213664       0.02456021       0.07790906       0.10035505
O        0.58516660      11.74628594       9.04381357       0.15674372      -0.22521297       0.51855658
O        3.74661004      13.78580523      10.91561791      -0.71010095      -1.20460949       0.77323825
O        8.90872402       6.56104863      10.95026667      -0.05438475      -0.15046251      -0.05267059
In       9.86974685       3.16055702       9.33450381       0.13883752      -0.10190980      -0.13985902
In       4.67748191      13.44750469       5.27710856      -0.01705927       0.06132776      -0.04418364
In       9.78317203       6.19863796       5.29152469      -0.02973224       0.00455857      -0.14317523
In       4.93126133      10.31098222       9.19265009      -0.24444662       0.04849024       0.41611662
In       2.24737415       8.07961616       7.40989273       0.07403595       0.13598771      -0.10802388
In       2.18782903       1.31755424       6.75006282       0.02442240      -0.09145903      -0.05181750
In       7.32551136       8.51289453       6.69766789       0.05850597       0.12282084      -0.11601075
In       7.34983575       0.84788414       7.34840284      -0.03424967       0.00711553      -0.05811002
In       7.63488004       8.28386288      10.61553737      -0.25770889       0.47530291       0.24134304
In       1.84762628      11.90075431       7.05393133       0.20722245       0.17059631       0.46702498
In       6.94815640       4.70798679       7.05799545       0.09634361      -0.17662143      -0.17367803
In       2.50758399       1.10605473      10.57324448      -0.31367589      -0.31032086      -0.08721440
In       4.77022333       2.62254204       8.75898656      -0.06051760      -0.08508244      -0.24131322
In       9.88674973      14.02830136       5.62408344       0.05313674       0.01893952      -0.07527985
In       4.75464971       6.81144537       5.65502880      -0.02201584      -0.00664707      -0.22145145
In       9.85407676       9.86614717       8.75256218      -0.11065643       0.10674167       0.26531421
Pt       2.20296414      12.17045432      10.68845729       1.33606486       3.20498292      -5.45237330
In       2.37532423       4.30017345      10.77928077      -0.09031360      -0.02932523      -0.04463770
In       7.48493392      11.63280621      10.76609287      -0.01931310      -0.08680585       0.27091433
In       7.37936840       5.01710605      10.47295400      -0.06710374       0.07490653       0.05807274
In       6.96116730      11.93548704       7.01352995      -0.00360572       0.06523326      -0.09526864
In       2.49652872       8.04010594      10.78494760       0.26269117       0.68536051       0.38511632
In       7.70593929       1.12386577      10.67995351      -0.11583900       0.17493864       0.09926207
In       1.81793653       4.70937798       7.08659823       0.03182049      -0.18804613      -0.01588736
In       9.81609923       2.88227309       5.44593520       0.00304264      -0.08797133      -0.01555852
In       4.76950631      13.70608476       9.06134934      -0.17234080      -0.32276963      -0.49173997
In       9.88760699      10.09838280       5.42312661      -0.00793160       0.05600506      -0.15667121
In       4.77908458       6.44764969       9.06969394      -0.07310804       0.12034641       0.07359192
In       9.83654259      13.71963332       9.01608965       0.47548546      -0.21980105       0.28281443
In       4.71903282      10.09875503       5.38471590      -0.00338949       0.11587114      -0.07460622
In       9.84427646       6.51177546       9.01177650       0.11838774       0.15993420       0.08999067
In       4.76328915       2.88789468       5.43591988      -0.06070144      -0.08819322      -0.05003290
C        2.60003428      10.55031833      13.05445101       0.03569077      -0.18929106       0.83550215
O        1.93176779      11.37465958      12.33762785      -0.91051383      -1.27036237       3.28085001
O        3.00310109      10.61592123      14.19609807       0.07451186      -0.08729384      -0.06969413
H        2.75540726       9.50828654      12.50178894      -0.11581715      -0.15376432      -0.35653927
83
Lattice="10.213696277208369 0.0 0.0 0.0 14.44429597782194 0.0 0.0 0.0 15.987395868621542" Properties=species:S:1:pos:R:3:qe4_forces:R:3 qe4_fenergy=-92010.0939222551 info=pt-doped-rattled-md-it0 free_energy=-91118.965236759 pbc="T T T"
O        6.21444411       2.63218243       6.99405068       0.03027500       0.01893181       0.02329163
O        1.10524069       9.86973458       6.99834169      -0.02301523      -0.08142967       0.30275488
O        1.13026968      13.91578387       7.29348877      -0.05633493       0.02137898      -0.04362622
O        6.21593681       6.73168236       7.29125286       0.04673237       0.05569576       0.09568361
O        3.32485286       8.43754630       5.58668675      -0.03434274      -0.04537123       0.13610727
O        8.43450634       1.19092571       5.54043321       0.00843373       0.00324859       0.03203312
O        8.44569565       8.18211125       8.54312324      -0.11668258      -0.15170024       0.06763827
O        3.35478726       0.89095303       8.53176846       0.08833334       0.02872205       0.13408587
O        0.96331114      14.16017154      10.59027475       0.02206907      -0.69918379       0.39873314
O        6.13908839       6.78243885      10.63896490      -0.01672503      -0.33303373       0.02761854
O        3.36520044      11.82404763       5.58713119      -0.02397477      -0.07536392       0.07068837
O        8.43653194       4.59275423       5.53601864      -0.02265271       0.00825658       0.05332237
O        6.12151766       9.90750288      10.87272609       0.04532187      -0.14720904       0.23342765
O        1.04583628       2.66681438      10.90751539      -0.14270986       0.03637417       0.09205630
O        8.52683881       4.74570227       8.59012915       0.02470059       0.10849748       0.12103700
O        3.38655065      11.81146849       8.78880053      -0.23340296       0.41690672       0.21419811
O        5.77690120      10.05119673       7.28168949      -0.17879684      -0.09882190       0.25931968
O        0.62021722       2.82122686       7.37510142      -0.02805279       0.10819357       0.20488968
O        3.96341757       0.96954975       5.12855983      -0.01561482      -0.00841471       0.00711219
O        9.07476143       8.18006217       5.12561384      -0.03154924      -0.03590906       0.03868405
O        8.89365261       1.25525940       8.91955080       0.30902425      -0.02616098      -0.17846980
O        3.78107647       8.47295890       9.09356229      -0.01737089      -0.23608925       0.12923780
O        0.61904655       6.63136132       7.06200581       0.07090357       0.01732821       0.05889652
O        5.72285300      13.83543349       7.06614517       0.01872792      -0.09963771       0.09619038
O        8.15249445       3.12238434      10.99801532       0.00546822       0.01036797      -0.01698239
O        3.32389697       6.10802715      10.99138041       0.03488627      -0.06235003       0.02904498
O        8.27719157      13.53954939      10.87511732      -0.00354401      -0.14790195      -0.07505668
O        0.95982341       4.61283220       5.04309659       0.04749419       0.03281808       0.05870575
O        6.06290771      11.86381389       4.99113299       0.02715856      -0.06102360       0.00921535
O        6.26053690      12.10222951       9.15122737      -0.29362437       0.07853975      -0.30913944
O        1.11846267       4.91960601       9.19686267       0.00649255      -0.03015596       0.19664595
O        3.39517876       6.18843792       7.36704346       0.09962074       0.09729286       0.26695895
O        8.51551532      13.39757237       7.32566512      -0.01558551      -0.02606559      -0.05256749
O        0.93634309       1.22197643       4.99761839      -0.00959176       0.03579773       0.03423116
O        6.03178214       8.43178684       4.95634112      -0.01909893      -0.05712940       0.05513294
O        8.48318730      10.40431612       6.97743236      -0.03838143       0.10066101       0.04896461
O        3.35998377       3.18010186       7.00353690      -0.04582040       0.13140086       0.06448276
O        6.10684604       0.97211096       9.33372891      -0.25152564       0.05701087       0.03696244
O        0.97248357       8.21712535       9.31572644       0.16442489       0.00063301       0.30346219
O        8.90298986      10.05587203      10.69387513      -0.23709430       0.02040582       0.17792498
O        3.83811175       2.81146200      10.66217880      -0.01956558      -0.04177194       0.16218880
O        0.30859530      12.04714533       5.18627781       0.04175523      -0.00346688       0.04913867
O        5.39976813       4.82988203       5.20595708       0.01285295       0.16730041       0.08550487
O        5.70501276       4.50396115       8.99173242       0.10721578       0.05324447       0.15404509
O        0.58957389      11.77809434       9.07176794       0.05809819      -0.14669739       0.74819879
O        3.73255367      13.76301115      10.92735827      -1.02189531      -0.67679796       0.75436661
O        8.90420503       6.53327786      10.93157660      -0.23684207       0.00653960       0.08485670
In       9.87180397       3.14692023       9.31917254      -0.02049375       0.08013229      -0.07434037
In       4.67748191      13.44750469       5.27710856      -0.01811934       0.08507061      -0.05889832
In       9.78317203       6.19863796       5.29152469      -0.05916957       0.00197178      -0.17927198
In       4.89328878      10.31216156       9.19759028      -0.21157352       0.15103972      -0.13621500
In       2.24737415       8.07961616       7.40989273      -0.05289737       0.11792288      -0.34350789
In       2.18782902       1.31755424       6.75006282       0.09411190      -0.07141959      -0.13083188
In       7.32551136       8.51289453       6.69766789       0.11864356       0.14912554      -0.17748841
In       7.34983575       0.84788414       7.34840284      -0.09427799      -0.01476610      -0.16152237
In       7.59993038       8.27598402      10.63580955       0.31994039       0.31557260      -0.18077402
In       1.84762628      11.90075431       7.05393133       0.27320647       0.12204539       0.28245730
In       6.94815640       4.70798679       7.05799545       0.10366123      -0.27903362      -0.38165201
In       2.49476207       1.11299210      10.59658909       0.54863540       0.04504393      -0.26929994
In       4.76399579       2.61683199       8.74489274      -0.09503312      -0.20471433      -0.16051527
In       9.88674973      14.02830136       5.62408344      -0.00266752       0.01113725      -0.15474700
In       4.75464971       6.81144537       5.65502879      -0.02612061      -0.02354514      -0.34339116
In       9.82720095       9.89075166       8.77033331       0.08251339      -0.06793678      -0.11150310
Pt       2.05647946      12.37646587      10.62771506       1.56953004       1.12947748      -2.94868531
In       2.37015865       4.28930959      10.80033211      -0.08360405       0.08408691      -0.17649133
In       7.45423257      11.59102877      10.77330853       0.54745244       0.24325337       0.26709239
In       7.35359627       5.00870460      10.46605173       0.14415791      -0.08843798       0.04443329
In       6.96116730      11.93548704       7.01352995      -0.03012639       0.06220913      -0.05756880
In       2.46144835       7.92020830      10.72387215      -0.05805371       0.53524870      -0.13010477
In       7.68789252       1.11350564      10.67639650      -0.03710642      -0.03841486       0.39176210
In       1.81793653       4.70937799       7.08659822       0.02896374      -0.16866849      -0.06885440
In       9.81609923       2.88227309       5.44593520      -0.04475468      -0.04699617      -0.07357855
In       4.77427093      13.69718831       9.05900262      -0.32902281      -0.18601033      -0.34296025
In       9.88760699      10.09838280       5.42312661      -0.01948716       0.00607835      -0.20574920
In       4.80760204       6.44355356       9.04380582      -0.21451281       0.22766503      -0.05249036
In       9.84569684      13.73725368       9.00734776      -0.09515499      -0.14343929       0.06571766
In       4.71903282      10.09875503       5.38471590       0.01132854       0.13280443      -0.05832779
In       9.82376866       6.50852442       8.99956024      -0.02964097      -0.03825750      -0.12140262
In       4.76328915       2.88789468       5.43591988      -0.04722577      -0.09297290      -0.14167705
C        1.80324481      10.42831383      12.62797623      -0.03128570       0.03540872       0.15964264
O        1.52583074      11.64618238      12.54396158      -0.47131718      -0.13459186       0.76839403
O        2.48846025       9.82173128      11.72431225       0.08215832      -0.32913003      -0.14045501
H        1.46750572       9.87258560      13.52257225       0.01114676       0.06917939      -0.03838992
84
Lattice="10.213696277208369 0.0 0.0 0.0 14.44429597782194 0.0 0.0 0.0 15.987395868621542" Properties=species:S:1:pos:R:3:qe4_forces:R:3 qe4_fenergy=-92023.89193949325 info=pt-doped-rattled-md-it0 free_energy=-91134.13063977969 pbc="T T T"
O        6.21444411       2.63218243       6.99405068       0.02508934      -0.01805429      -0.01916398
O        1.10524069       9.86973459       6.99834169       0.01997310      -0.19260212       0.04056995
O        1.13026968      13.91578387       7.29348876      -0.01134859       0.21463237       0.01022168
O        6.21593681       6.73168235       7.29125285       0.02225727      -0.06735082       0.05368181
O        3.32485286       8.43754630       5.58668675      -0.02411721      -0.08926665       0.06044433
O        8.43450634       1.19092571       5.54043321       0.00899398       0.05600532       0.00863942
O        8.43717724       8.16647500       8.54571517      -0.00514709      -0.12720740      -0.04326318
O        3.35317605       0.91168689       8.52503376      -0.05335528      -0.15449374       0.41941638
O        0.99111311      14.11652581      10.57829004      -2.29244794       3.81201502      -0.17154890
O        6.12551267       6.73768853      10.66037434       0.15439321      -0.05770327       0.03680072
O        3.36520044      11.82404763       5.58713119       0.01874823      -0.01159799      -0.07152218
O        8.43653194       4.59275423       5.53601863      -0.01413156       0.00577701       0.03549640
O        6.12110721       9.90263371      10.88197303       0.08874780      -0.02389224       0.11919249
O        1.04977667       2.69091564      10.91523533      -0.11110149      -0.39504412       0.06865643
O        8.51983413       4.74769311       8.59802927       0.08059175      -0.04074762       0.18767846
O        3.37423819      11.84772313       8.80108665       0.69761285       0.17112313      -0.38850297
O        5.77690119      10.05119673       7.28168949      -0.09370283      -0.05795473       0.19064680
O        0.62021722       2.82122686       7.37510142      -0.02655950       0.07510887       0.19970942
O        3.96341757       0.96954975       5.12855983      -0.01232433       0.06678107       0.01789745
O        9.07476143       8.18006216       5.12561384      -0.00254128      -0.08533955      -0.01523842
O        8.92966842       1.22915107       8.90769279       0.20272224      -0.18880615       0.24132762
O        3.83981249       8.46184580       9.03657402      -0.09626262      -0.06155504      -0.07547345
O        0.61904655       6.63136132       7.06200581       0.01895417      -0.05477556       0.02756403
O        5.72285300      13.83543349       7.06614518       0.00117782       0.08396529       0.06538933
O        8.14423356       3.08353238      11.00515104       0.07170242       0.27404876       0.02033691
O        3.24490717       6.20024569      10.91212924      -0.02139081      -0.28863952      -0.06119226