79
Lattice="10.213697277208299 0.0 0.0 0.0 14.44429697782187 0.0 0.0 0.0 15.987396868621472" Properties=species:S:1:pos:R:3:qe_forces_direct:R:3:qe4_forces:R:3 origin=dft-relax-no-dipole-Sep-22 dang-name=c-In2O3(110)-Ov4 free_energy=-89717.17083464166 U=-89717.15777336629 qe4_fenergy=-89717.16382354585 origin_detail=bfgs-step-27 uid=1d85d00586cb475694dde3ae40caec2e energy_sigma=0.0001 config_type=Framework-mdA qe_fenergy_direct=-89717.15670587673 pbc="T T T"
O        6.21444485       2.63218263       6.99405107       0.00883097      -0.01346950      -0.00047103       0.00883097      -0.01346950      -0.00047103
O        1.10524081       9.86973522       6.99834206       0.00939970      -0.02486488       0.00897392       0.00939970      -0.02486488       0.00897392
O        1.13026981      13.91578486       7.29348912       0.00307735       0.00151515      -0.00170181       0.00307735       0.00151515      -0.00170181
O        6.21593755       6.73168285       7.29125322       0.00196407       0.00377387       0.00419296       0.00196407       0.00377387       0.00419296
O        3.32485333       8.43754682       5.58668705       0.00157352       0.00257419       0.01497616       0.00157352       0.00257419       0.01497616
O        8.43450737       1.19092574       5.54043356       0.00779327      -0.00067337      -0.00171955       0.00779327      -0.00067337      -0.00171955
O        8.43339061       8.15858029       8.54908261      -0.00337354      -0.00022626       0.00165528      -0.00337354      -0.00022626       0.00165528
O        3.35275451       0.89173035       8.54776806      -0.00120071       0.00470512      -0.00113848      -0.00120071       0.00470512      -0.00113848
O        0.99991074      14.03596519      10.61874677       0.00316760       0.00333344       0.00020389       0.00316760       0.00333344       0.00020389
O        6.13813951       6.75866368      10.65470452      -0.00402506       0.00187716       0.00095028      -0.00402506       0.00187716       0.00095028
O        3.36520083      11.82404844       5.58713145       0.00270634      -0.00459868      -0.00699829       0.00270634      -0.00459868      -0.00699829
O        8.43653297       4.59275455       5.53601896       0.00176866      -0.01086420      -0.00100453       0.00176866      -0.01086420      -0.00100453
O        6.12047579       9.92685854      10.91224647      -0.00416879      -0.00578421       0.00198283      -0.00416879      -0.00578421       0.00198283
O        1.06518167       2.67665147      10.91381284       0.00298274       0.00635962       0.00234150       0.00298274       0.00635962       0.00234150
O        8.53277450       4.76029130       8.60141372      -0.00266032      -0.00155783       0.00342677      -0.00266032      -0.00155783       0.00342677
O        3.41924027      11.84200560       8.71663323       0.00006891       0.00493266      -0.00055150       0.00006891       0.00493266      -0.00055150
O        5.77690192      10.05119739       7.28168992      -0.00458402      -0.00345813       0.01674431      -0.00458402      -0.00345813       0.01674431
O        0.62021730       2.82122711       7.37510182       0.00893870       0.01045282       0.01391250       0.00893870       0.01045282       0.01391250
O        3.96341803       0.96954986       5.12856012      -0.00057310      -0.00257805      -0.01133265      -0.00057310      -0.00257805      -0.01133265
O        9.07476257       8.18006275       5.12561412       0.00443952      -0.00489101      -0.01404002       0.00443952      -0.00489101      -0.01404002
O        8.93135347       1.23338026       8.91481952       0.00400578       0.00273051       0.00121305       0.00400578       0.00273051       0.00121305
O        3.80137411       8.50613546       9.03830657       0.00098422      -0.00515738      -0.00606343       0.00098422      -0.00515738      -0.00606343
O        0.61904660       6.63136177       7.06200616       0.01312368       0.00118785       0.02390432       0.01312368       0.00118785       0.02390432
O        5.72285374      13.83543446       7.06614556       0.01720119      -0.00824964      -0.00438887       0.01720120      -0.00824964      -0.00438887
O        8.15401596       3.11356447      10.99698921       0.00459739       0.00353912      -0.00132180       0.00459739       0.00353912      -0.00132180
O        3.19137011       6.25032776      10.80264445       0.00312106       0.00281587       0.00053865       0.00312106       0.00281587       0.00053865
O        8.28260740      13.53889573      10.86781672      -0.00310486      -0.00305421      -0.00374713      -0.00310486      -0.00305421      -0.00374713
O        0.95982354       4.61283255       5.04309692       0.00838642       0.00328201      -0.00879832       0.00838642       0.00328201      -0.00879832
O        6.06290848      11.86381474       4.99113324       0.00448632       0.00163676      -0.02308285       0.00448632       0.00163676      -0.02308285
O        6.23919139      12.10612271       9.13893089       0.00565128       0.00642313      -0.00151978       0.00565129       0.00642313      -0.00151978
O        1.08610939       4.88307883       9.18547117      -0.00177406       0.00242044       0.00571428      -0.00177406       0.00242044       0.00571428
O        3.39517923       6.18843833       7.36704382      -0.00156092      -0.01061634       0.03818062      -0.00156092      -0.01061634       0.03818063
O        8.51551637      13.39757322       7.32566552      -0.00518900      -0.01461595       0.00565874      -0.00518900      -0.01461595       0.00565874
O        0.93634324       1.22197652       4.99761864      -0.00113000       0.00066926      -0.00466398      -0.00113000       0.00066926      -0.00466398
O        6.03178288       8.43178742       4.95634134      -0.00778993       0.00524068      -0.01646689      -0.00778993       0.00524068      -0.01646689
O        8.48318837      10.40431684       6.97743277      -0.02304711       0.00897881      -0.01852531      -0.02304711       0.00897881      -0.01852531
O        3.35998423       3.18010205       7.00353726      -0.02187392      -0.00008125       0.01330957      -0.02187392      -0.00008125       0.01330957
O        6.09480451       0.98749535       9.34398575      -0.00537412      -0.00031008       0.00041189      -0.00537412      -0.00031008       0.00041189
O        1.01448617       8.23780721       9.32877240       0.00135189      -0.00268757      -0.00175221       0.00135189      -0.00268757      -0.00175221
O        8.88486239      10.06845225      10.69106209       0.00374378      -0.00152672      -0.00353115       0.00374378      -0.00152672      -0.00353115
O        3.82432571       2.81088890      10.68493560      -0.00608066       0.00335580       0.00254076      -0.00608066       0.00335580       0.00254076
O        0.30859535      12.04714612       5.18627810       0.02084985       0.00056333      -0.01236264       0.02084985       0.00056333      -0.01236264
O        5.39976879       4.82988233       5.20595740      -0.00636939      -0.00213119       0.00011801      -0.00636939      -0.00213119       0.00011801
O        5.69353801       4.51640690       9.00842619       0.00140742       0.00865176      -0.00125161       0.00140742       0.00865176      -0.00125161
O        0.57627287      11.73429295       9.04656694      -0.00186508       0.00088240      -0.00364582      -0.00186508       0.00088240      -0.00364582
O        3.74743421      13.72002105      10.95330606      -0.00034144       0.00449814       0.00474986      -0.00034144       0.00449815       0.00474986
O        8.87162630       6.54002852      10.94404724       0.00097779      -0.00385331      -0.00326839       0.00097779      -0.00385331      -0.00326839
In       9.87967865       3.15073594       9.32350804      -0.00465858      -0.00431277      -0.00400398      -0.00465858      -0.00431277      -0.00400398
In       4.67748251      13.44750562       5.27710880      -0.00508924       0.00831803      -0.01144064      -0.00508924       0.00831803      -0.01144064
In       9.78317325       6.19863843       5.29152500      -0.00657508       0.00548519       0.00897701      -0.00657508       0.00548519       0.00897701
In       4.90997487      10.30710305       9.18480082       0.00154626       0.00706796      -0.00278373       0.00154626       0.00706796      -0.00278373
In       2.24737442       8.07961667       7.40989312       0.01871737       0.00979385       0.05940302       0.01871738       0.00979385       0.05940303
In       2.18782934       1.31755432       6.75006320      -0.00271791      -0.01045822      -0.01084466      -0.00271791      -0.01045822      -0.01084466
In       7.32551226       8.51289511       6.69766821      -0.00578884      -0.00550576      -0.02145277      -0.00578884      -0.00550576      -0.02145277
In       7.34983666       0.84788418       7.34840322       0.00995583      -0.00514683      -0.00016378       0.00995583      -0.00514683      -0.00016378
In       7.59669319       8.28609830      10.62337234      -0.00336095       0.00052759      -0.00230962      -0.00336095       0.00052759      -0.00230962
In       1.84762649      11.90075514       7.05393176       0.00880294      -0.00333215      -0.02106042       0.00880294      -0.00333215      -0.02106042
In       6.94815723       4.70798714       7.05799586      -0.00232531       0.02402593      -0.01139770      -0.00232531       0.02402593      -0.01139770
In       2.50034397       1.08336127      10.60785143       0.00347176      -0.00066077       0.00210085       0.00347176      -0.00066077       0.00210085
In       4.75233022       2.62814939       8.75797970       0.00231554      -0.00085412      -0.00265698       0.00231554      -0.00085412      -0.00265698
In       9.88675093      14.02830234       5.62408375      -0.00513244      -0.00453954      -0.01329440      -0.00513244      -0.00453954      -0.01329440
In       4.75465029       6.81144585       5.65502905      -0.00599298       0.00623775       0.02198396      -0.00599298       0.00623775       0.02198396
In       9.84741862       9.83637318       8.76795880      -0.00511161       0.00510621      -0.00557647      -0.00511161       0.00510621      -0.00557647
In       2.19038355      12.28804809      10.46169883      -0.00156349       0.00014578      -0.00114543      -0.00156349       0.00014578      -0.00114543
In       2.38546255       4.34995482      10.77227402      -0.00601021      -0.00131358       0.00149175      -0.00601021      -0.00131358       0.00149175
In       7.47530490      11.60665767      10.77579322      -0.00072351       0.00146733       0.00286189      -0.00072351       0.00146733       0.00286190
In       7.35858458       5.01413168      10.45325798       0.00029619      -0.00521085      -0.00411454       0.00029619      -0.00521086      -0.00411454
In       6.96116813      11.93548783       7.01353036       0.00399035      -0.01722845      -0.01487332       0.00399035      -0.01722845      -0.01487332
In       2.52817456       8.33892360      10.86758302      -0.00827921       0.00718546      -0.00170593      -0.00827921       0.00718546      -0.00170593
In       7.69194879       1.11780579      10.68066359      -0.00042295      -0.00374430      -0.00126190      -0.00042295      -0.00374430      -0.00126190
In       1.81793679       4.70937834       7.08659866       0.00328767      -0.00055459       0.02345797       0.00328767      -0.00055459       0.02345798
In       9.81610045       2.88227330       5.44593547      -0.00991392       0.01065285       0.01710838      -0.00991392       0.01065285       0.01710838
In       4.76614588      13.70807988       9.04567289       0.00075179       0.00203554      -0.00179206       0.00075179       0.00203554      -0.00179206
In       9.88760823      10.09838349       5.42312688      -0.00164731      -0.00691704      -0.01249762      -0.00164731      -0.00691704      -0.01249762
In       4.71019812       6.46418626       9.12296790       0.00276574      -0.00287089      -0.00505273       0.00276574      -0.00287089      -0.00505273
In       9.84322610      13.70200150       9.04716500       0.00561015       0.00196355       0.00366279       0.00561015       0.00196355       0.00366279
In       4.71903341      10.09875569       5.38471618      -0.00522140       0.01085186       0.00940818      -0.00522140       0.01085186       0.00940818
In       9.87354914       6.52466613       9.04569581      -0.00458968      -0.00170156      -0.00017998      -0.00458968      -0.00170156      -0.00017998
In       4.76328979       2.88789490       5.43592018      -0.01689986       0.00233610      -0.01319876      -0.01689986       0.00233610      -0.01319876
82
Lattice="10.21369527720844 0.0 0.0 0.0 14.44429497782201 0.0 0.0 0.0 15.987394868621614" Properties=species:S:1:pos:R:3:qe_forces_direct:R:3:qe4_forces:R:3 origin=dft-relax-no-dipole-Sep-22 dang-name=ln-CO2_D free_energy=-91102.01842463021 U=-91101.95332353406 qe4_fenergy=-91101.9911262718 origin_detail=bfgs-step-49 uid=4c1ef2d84a1e4160b675be4acfe8705a energy_sigma=0.0001 config_type=Framework-mdA qe_fenergy_direct=-91101.98389873805 pbc="T T T"
O        6.21444350       2.63218225       6.99405024       0.00829592      -0.02582082      -0.00401503       0.00829592      -0.02582082      -0.00401503
O        1.10524058       9.86973390       6.99834125       0.00053865       0.01836590       0.01111231       0.00053865       0.01836591       0.01111231
O        1.13026957      13.91578291       7.29348831      -0.00023706      -0.01219037       0.01546107      -0.00023706      -0.01219037       0.01546107
O        6.21593620       6.73168189       7.29125240       0.01236366       0.00353655      -0.00267035       0.01236366       0.00353655      -0.00267035
O        3.32485253       8.43754572       5.58668640       0.00329410       0.01195614       0.00962107       0.00329410       0.01195614       0.00962107
O        8.43450551       1.19092563       5.54043286       0.00931819      -0.00752845      -0.00557595       0.00931819      -0.00752845      -0.00557595
O        8.43312934       8.16178951       8.55232340      -0.00109580      -0.00556978      -0.00054559      -0.00109580      -0.00556978      -0.00054559
O        3.35306550       0.89123606       8.54717753      -0.01807074      -0.00400732      -0.00504399      -0.01807074      -0.00400732      -0.00504399
O        0.98879904      14.04769208      10.62266361       0.01326792       0.01204639      -0.01041271       0.01326792       0.01204639      -0.01041271
O        6.14342100       6.76014108      10.65170557      -0.00758887      -0.00278836       0.00290046      -0.00758887      -0.00278836       0.00290046
O        3.36520011      11.82404681       5.58713084       0.00021006       0.00288683      -0.00096494       0.00021006       0.00288683      -0.00096494
O        8.43653111       4.59275391       5.53601829      -0.00102356      -0.01621440      -0.00001491      -0.00102356      -0.01621441      -0.00001491
O        6.12245305       9.92571168      10.92061706      -0.00936293       0.01662064      -0.00794445      -0.00936293       0.01662064      -0.00794445
O        1.06524435       2.67807604      10.90758803      -0.00398907      -0.00748757       0.02010834      -0.00398907      -0.00748757       0.02010834
O        8.53496990       4.76444712       8.60071081      -0.00687642       0.00410091       0.00500105      -0.00687642       0.00410091       0.00500105
O        3.41545387      11.83567073       8.72194986      -0.00610354       0.00211525       0.02115992      -0.00610354       0.00211525       0.02115992
O        5.77690063      10.05119603       7.28168903       0.00099553       0.00423204       0.01346332       0.00099553       0.00423204       0.01346333
O        0.62021716       2.82122667       7.37510096       0.01330083       0.00285367      -0.00001286       0.01330083       0.00285367      -0.00001286
O        3.96341719       0.96954968       5.12855951      -0.00147787      -0.01026102      -0.01355408      -0.00147787      -0.01026102      -0.01355409
O        9.07476054       8.18006160       5.12561352       0.00164473       0.00228905      -0.01305632       0.00164473       0.00228905      -0.01305632
O        8.92706680       1.23973476       8.91076815       0.00640513      -0.00618067       0.00630872       0.00640513      -0.00618068       0.00630872
O        3.80471646       8.50146028       9.03577192      -0.00553559      -0.01360268       0.01029521      -0.00553559      -0.01360268       0.01029521
O        0.61904649       6.63136086       7.06200537       0.00634471      -0.00375870       0.01112593       0.00634471      -0.00375870       0.01112594
O        5.72285244      13.83543253       7.06614473       0.01837876      -0.01780952      -0.00158843       0.01837876      -0.01780952      -0.00158843
O        8.15777261       3.11762734      10.99871613      -0.00118862      -0.00162365      -0.00306064      -0.00118862      -0.00162365      -0.00306064
O        3.20525364       6.23372689      10.79415807       0.00760172      -0.01042145       0.00398032       0.00760172      -0.01042145       0.00398033
O        8.27600441      13.54331542      10.85655821       0.00053865      -0.00631771       0.01073024       0.00053865      -0.00631772       0.01073024
O        0.95982332       4.61283188       5.04309627       0.00682242      -0.00526845      -0.00907008       0.00682242      -0.00526845      -0.00907008
O        6.06290712      11.86381307       4.99113268       0.00321362       0.00621076      -0.02891103       0.00321362       0.00621076      -0.02891103
O        6.23264328      12.10210402       9.13985136       0.02141652       0.00380215      -0.00045611       0.02141652       0.00380215      -0.00045611
O        1.08941855       4.88290714       9.18627678      -0.02004406       0.01208753      -0.01369755      -0.02004406       0.01208753      -0.01369755
O        3.39517843       6.18843749       7.36704300      -0.00249783      -0.02894137       0.00698209      -0.00249783      -0.02894137       0.00698209
O        8.51551449      13.39757144       7.32566466      -0.00500877      -0.01332988       0.01042222      -0.00500877      -0.01332989       0.01042222
O        0.93634300       1.22197635       4.99761808       0.00091223      -0.00756830      -0.00432280       0.00091223      -0.00756830      -0.00432280
O        6.03178155       8.43178626       4.95634081      -0.00523117       0.00803778      -0.01732435      -0.00523117       0.00803778      -0.01732435
O        8.48318647      10.40431540       6.97743192      -0.01770924       0.01784551      -0.01308357      -0.01770925       0.01784551      -0.01308357
O        3.35998344       3.18010164       7.00353646      -0.01900611      -0.00610740       0.01782109      -0.01900611      -0.00610740       0.01782109
O        6.09115941       0.98561723       9.34445100       0.00421789       0.01081355      -0.00616833       0.00421790       0.01081355      -0.00616833
O        1.02084659       8.23830231       9.32448597      -0.00965655      -0.00664527       0.01892203      -0.00965655      -0.00664527       0.01892204
O        8.88835385      10.07300668      10.69402430      -0.00530650      -0.01107837       0.00128529      -0.00530650      -0.01107837       0.00128529
O        3.82837927       2.80096818      10.69079428       0.00839182       0.02274861      -0.02114732       0.00839182       0.02274861      -0.02114733
O        0.30859527      12.04714450       5.18627748       0.02264242       0.01019057      -0.01566547       0.02264242       0.01019057      -0.01566548
O        5.39976760       4.82988170       5.20595675      -0.00465832      -0.00768477       0.00145139      -0.00465833      -0.00768477       0.00145139
O        5.69939506       4.51426499       9.00783632      -0.01282235      -0.00783158       0.00280610      -0.01282235      -0.00783158       0.00280610
O        0.57346687      11.73801304       9.05370726       0.01504070       0.00056616       0.01000313       0.01504070       0.00056616       0.01000313
O        3.74173381      13.72033346      10.95069671       0.01506718      -0.00104618      -0.00051885       0.01506718      -0.00104618      -0.00051885
O        8.88000796       6.54123026      10.94818750      -0.02113935       0.00879677      -0.01061480      -0.02113935       0.00879677      -0.01061480
In       9.87816305       3.15510945       9.31992035       0.01968077       0.00229754       0.01089454       0.01968077       0.00229754       0.01089454
In       4.67748145      13.44750376       5.27710823      -0.00353810       0.01457764      -0.01144578      -0.00353810       0.01457764      -0.01144578
In       9.78317107       6.19863753       5.29152436      -0.00033990       0.00349953       0.01483115      -0.00033990       0.00349953       0.01483115
In       4.91178746      10.29890294       9.18716646      -0.01420123       0.00586289      -0.00020595      -0.01420123       0.00586289      -0.00020595
In       2.24737393       8.07961560       7.40989227       0.04612688       0.00176712       0.07566037       0.04612688       0.00176712       0.07566037
In       2.18782881       1.31755415       6.75006240       0.00162854      -0.00024605      -0.01223099       0.00162854      -0.00024605      -0.01223100
In       7.32551064       8.51289394       6.69766747       0.00153212      -0.00637274      -0.00915801       0.00153212      -0.00637274      -0.00915801
In       7.34983503       0.84788409       7.34840238      -0.00911507       0.00895078      -0.01746499      -0.00911508       0.00895078      -0.01746499
In       7.60040154       8.28664403      10.62712114       0.01311545       0.00049571      -0.00949406       0.01311546       0.00049571      -0.00949406
In       1.84762610      11.90075349       7.05393089       0.00348950      -0.01931516      -0.02826465       0.00348950      -0.01931516      -0.02826465
In       6.94815572       4.70798646       7.05799501       0.01066571       0.02436454      -0.01425934       0.01066571       0.02436455      -0.01425934
In       2.49860048       1.08592870      10.60896534       0.00850598      -0.00109786      -0.00922460       0.00850598      -0.00109786      -0.00922460
In       4.75146318       2.62850395       8.75721101       0.00997279      -0.00257239       0.01613676       0.00997280      -0.00257239       0.01613676
In       9.88674876      14.02830039       5.62408309      -0.00791540      -0.00040032      -0.01931233      -0.00791540      -0.00040032      -0.01931233
In       4.75464924       6.81144490       5.65502844      -0.01978310       0.00634265       0.02141832      -0.01978310       0.00634265       0.02141832
In       9.85084584       9.83562002       8.76977711      -0.00759504      -0.00738241      -0.00528542      -0.00759504      -0.00738241      -0.00528542
In       2.18224273      12.31074881      10.45408388      -0.00161465       0.02110773       0.01551249      -0.00161465       0.02110773       0.01551249
In       2.39056015       4.34305435      10.77045366      -0.01247911       0.00172007       0.00061732      -0.01247911       0.00172007       0.00061732
In       7.47389954      11.60788830      10.77519277       0.00809872       0.00228237      -0.01085597       0.00809872       0.00228237      -0.01085597
In       7.36369359       5.01793433      10.45414643      -0.00319305      -0.00599453      -0.00301873      -0.00319305      -0.00599453      -0.00301873
In       6.96116662      11.93548621       7.01352951      -0.00199081      -0.03441447      -0.00732739      -0.00199081      -0.03441448      -0.00732739
In       2.53471725       8.31390001      10.87732418      -0.00876258       0.01297070       0.00032422      -0.00876258       0.01297070       0.00032422
In       7.68850300       1.12555139      10.67754299       0.00626706      -0.01678519       0.01164273       0.00626706      -0.01678519       0.01164273
In       1.81793635       4.70937766       7.08659778       0.00557749       0.01953139       0.02711485       0.00557749       0.01953139       0.02711486
In       9.81609827       2.88227289       5.44593486      -0.00926523       0.02293013       0.01561148      -0.00926523       0.02293013       0.01561148
In       4.76537579      13.70686117       9.04467849      -0.00034144       0.00743640       0.00553533      -0.00034144       0.00743640       0.00553533
In       9.88760603      10.09838210       5.42312628      -0.00633494      -0.01973939      -0.00614082      -0.00633494      -0.01973939      -0.00614082
In       4.71403020       6.46034844       9.11876965       0.00902509       0.01276604       0.00494140       0.00902509       0.01276604       0.00494140
In       9.83948265      13.70918397       9.04729547      -0.01748556      -0.01226133      -0.00938633      -0.01748556      -0.01226133      -0.00938633
In       4.71903236      10.09875433       5.38471556      -0.00714458      -0.00942566       0.01584160      -0.00714458      -0.00942566       0.01584160
In       9.87824159       6.52782284       9.04801225       0.00015992      -0.00981956      -0.01121978       0.00015992      -0.00981956      -0.01121978
In       4.76328869       2.88789448       5.43591954      -0.01186821       0.01209036      -0.01594418      -0.01186821       0.01209036      -0.01594418
C        2.19337202      10.58613791      14.11766910      -0.00496840       0.00614211      -0.01365976      -0.00496840       0.00614211      -0.01365976
O        2.08276097      11.56194446      13.47262716      -0.01164555       0.03172870      -0.01568501      -0.01164556       0.03172870      -0.01568502
O        2.30211696       9.61929670      14.76659798       0.00114260      -0.00805655      -0.00801850       0.00114260      -0.00805655      -0.00801850
83
Lattice="10.21369527720844 0.0 0.0 0.0 14.44429497782201 0.0 0.0 0.0 15.987394868621614" Properties=species:S:1:pos:R:3:qe_forces_direct:R:3:qe4_forces:R:3 origin=dft-relax-no-dipole-Sep-22 dang-name=CO2+H_D free_energy=-91118.14018962899 U=-91118.11339207423 qe4_fenergy=-91118.171105111 origin_detail=bfgs-step-49 uid=e6f98e6901f54264b6e893e8088a3bd9 energy_sigma=0.0001 config_type=Framework-mdA qe_fenergy_direct=-91118.16387629362 pbc="T T T"
O        6.21444350       2.63218224       6.99405024       0.01608405      -0.02559430       0.02257300       0.01608405      -0.02559431       0.02257300
O        1.10524059       9.86973389       6.99834125       0.02384544      -0.07500216       0.29115995       0.02384544      -0.07500217       0.29115997
O        1.13026956      13.91578291       7.29348831      -0.00315706      -0.08529686       0.14291246      -0.00315706      -0.08529687       0.14291247
O        6.21593620       6.73168189       7.29125241      -0.00850881       0.08751547       0.09796880      -0.00850881       0.08751547       0.09796881
O        3.32485253       8.43754572       5.58668640      -0.03798239      -0.00872864       0.14820250      -0.03798240      -0.00872864       0.14820251
O        8.43450551       1.19092562       5.54043286       0.00347253      -0.01196669       0.02515310       0.00347253      -0.01196669       0.02515310
O        8.44194106       8.17090309       8.55790108      -0.00803778      -0.00794214       0.00607423      -0.00803778      -0.00794214       0.00607423
O        3.35501531       0.88252878       8.54857101       0.01202942       0.00762306      -0.00077005       0.01202942       0.00762306      -0.00077005
O        0.95178775      14.15012383      10.59734903      -0.00501005       0.00297168       0.00598090      -0.00501005       0.00297168       0.00598090
O        6.15517522       6.76663684      10.64594017       0.00117988       0.00029413      -0.00416519       0.00117988       0.00029413      -0.00416519
O        3.36520010      11.82404680       5.58713084      -0.03452683      -0.08130445       0.11536720      -0.03452683      -0.08130446       0.11536721
O        8.43653111       4.59275392       5.53601829      -0.01416138      -0.00329435       0.04836168      -0.01416138      -0.00329435       0.04836168
O        6.14085511       9.92101474      10.92347378      -0.00215510      -0.00352344      -0.00843733      -0.00215510      -0.00352344      -0.00843733
O        1.04972011       2.68253742      10.92563634       0.00504630       0.01334865       0.00499540       0.00504630       0.01334865       0.00499540
O        8.53087454       4.77049747       8.60303935      -0.01067393       0.00574950       0.00574384      -0.01067394       0.00574950       0.00574384
O        3.41108681      11.80329821       8.77000452       0.01594778      -0.01035306       0.00691730       0.01594778      -0.01035306       0.00691730
O        5.77690063      10.05119602       7.28168903      -0.07727785      -0.10531367       0.13312041      -0.07727785      -0.10531368       0.13312042
O        0.62021717       2.82122667       7.37510097       0.00752202       0.04648889       0.12405804       0.00752202       0.04648889       0.12405805
O        3.96341719       0.96954968       5.12855950      -0.02556011      -0.00231554       0.03474923      -0.02556011      -0.00231554       0.03474923
O        9.07476054       8.18006160       5.12561352      -0.02972221      -0.04259289       0.05095284      -0.02972221      -0.04259290       0.05095284
O        8.90130735       1.25655858       8.91563699       0.01161367      -0.01009569      -0.00586546       0.01161367      -0.01009569      -0.00586546
O        3.78865910       8.49548964       9.12553645      -0.00281639       0.00164036       0.00671572      -0.00281639       0.00164036       0.00671572