83
Lattice="10.213697277208299 0.0 0.0 0.0 14.44429697782187 0.0 0.0 0.0 15.987396868621472" Properties=species:S:1:pos:R:3:magmoms:R:1:qe3_forces:R:3 free_energy=-92009.47191928465 dang-name=mono-HCOO_D qe3_fenergy=-92009.47191928465 pbc="T T T"
O        6.21444486       2.63218261       6.99405111      -0.00010000       0.02000601       0.00736801      -0.01422591
O        1.10524082       9.86973520       6.99834210      -0.00030000       0.00898189      -0.12446119       0.22316713
O        1.13026982      13.91578482       7.29348918      -0.00040000      -0.02216882      -0.02270901      -0.04266309
O        6.21593756       6.73168282       7.29125328      -0.00020000      -0.02217962       0.06149899       0.06739453
O        3.32485326       8.43754690       5.58668710      -0.00030000      -0.02536033      -0.01745291       0.13913139
O        8.43450740       1.19092582       5.54043351      -0.00020000       0.00575361      -0.00017869       0.00548673
O        8.43656110       8.16863242       8.54897070      -0.00020000      -0.00838334      -0.01986460      -0.03470064
O        3.36182396       0.89712844       8.53045590      -0.00030000       0.02761416      -0.00666199       0.06204638
O        0.96917803      14.12819390      10.59332245       0.04880000       0.18179782      -0.34957953       0.52223373
O        6.14412487       6.76290032      10.64614685      -0.00040000      -0.00886465      -0.01405802      -0.01760383
O        3.36520086      11.82404846       5.58713150      -0.00070000      -0.02840298      -0.07398581       0.15045967
O        8.43653300       4.59275457       5.53601891      -0.00010000      -0.01050347       0.01023222       0.03475720
O        6.10587127       9.93127570      10.92470883      -0.00040000       0.04502439      -0.02941111      -0.04301661
O        1.04228333       2.67653191      10.92106603       0.00090000      -0.02589795      -0.04808657      -0.03162405
O        8.52720690       4.76028196       8.60216109      -0.00020000       0.00178409      -0.01008824      -0.00414488
O        3.38973616      11.81745076       8.81255648       0.02030000      -0.09355293       0.21903305       0.02281546
O        5.77690189      10.05119739       7.28168988       0.00150000      -0.14155774      -0.08743962       0.13951886
O        0.62021726       2.82122710       7.37510178      -0.00000000       0.00972237       0.09834598       0.10806681
O        3.96341812       0.96954983       5.12856014      -0.00030000      -0.00902457      -0.01196591      -0.00321208
O        9.07476256       8.18006272       5.12561414      -0.00040000      -0.02046804      -0.02330268       0.03571082
O        8.91519087       1.24571051       8.90688697       0.00030000       0.03714601      -0.02091721       0.02582930
O        3.78730493       8.49592600       9.11069336      -0.00050000       0.01638461      -0.05520596      -0.02725215
O        0.61904666       6.63136173       7.06200620      -0.00010000       0.07075650       0.08062748       0.13164177
O        5.72285370      13.83543442       7.06614560      -0.00020000      -0.00971106      -0.06402792       0.06799257
O        8.16190662       3.11410198      11.00037112      -0.00040000      -0.00243921       0.03235630      -0.01969362
O        3.29267327       6.13714257      10.85391453      -0.00150000      -0.01799978       0.09345137       0.00605675
O        8.28489011      13.54235354      10.86426703       0.00030000      -0.02113550       0.00020029      -0.04276182
O        0.95982353       4.61283247       5.04309684      -0.00030000       0.03573011       0.04227176       0.03927771
O        6.06290847      11.86381466       4.99113325      -0.00050000       0.01009544      -0.05512574       0.01820444
O        6.24031066      12.10706554       9.14073585       0.00110000      -0.01008464       0.01411150      -0.01229656
O        1.08917122       4.90576325       9.19602525      -0.00000000       0.01094570      -0.00284390      -0.00664219
O        3.39517916       6.18843836       7.36704388      -0.00020000       0.07002348       0.13137283       0.21178125
O        8.51551640      13.39757325       7.32566548      -0.00010000      -0.03724526      -0.06858366      -0.04027145
O        0.93634323       1.22197651       4.99761865      -0.00040000      -0.00784829       0.03211694       0.01056955
O        6.03178287       8.43178740       4.95634135       0.00000000      -0.01984403      -0.01564028       0.04484801
O        8.48318840      10.40431686       6.97743271       0.00000000      -0.04778549       0.05220882       0.02815487
O        3.35998416       3.18010207       7.00353730      -0.00010000      -0.04644004       0.12592415       0.04167655
O        6.09923857       0.99004143       9.34476694      -0.00030000      -0.07115399      -0.03638162       0.04417052
O        0.99451863       8.23470432       9.35513034      -0.00130000       0.01165892      -0.08365675      -0.03184620
O        8.87229127      10.06921089      10.68736094      -0.00020000      -0.04011692      -0.03157135      -0.02860095
O        3.83243763       2.82205510      10.67276364      -0.00010000       0.02182507      -0.02788027       0.00337972
O        0.30859538      12.04714615       5.18627813      -0.00030000       0.03597899      -0.03552133       0.03931242
O        5.39976882       4.82988236       5.20595733      -0.00040000      -0.00003240       0.12571795       0.05326812
O        5.71563740       4.50722928       9.00517296      -0.00020000      -0.00412919      -0.01546724       0.00944340
O        0.58603506      11.75531187       9.07629906       0.00210000       0.35188889       0.00860471       0.45956875
O        3.73806254      13.77807012      10.94738103       0.00270000      -0.70753648      -0.74129146       0.19471401
O        8.87532557       6.54278084      10.93957163      -0.00030000      -0.00634085      -0.00229368      -0.00270737
In       9.87036250       3.14730178       9.31870164      -0.00010000      -0.01385490       0.01956455      -0.00519131
In       4.67748247      13.44750555       5.27710883      -0.00010000      -0.00134957       0.10504242      -0.07033330
In       9.78317331       6.19863836       5.29152493      -0.00010000      -0.04794490       0.00302105      -0.12900279
In       4.91950165      10.31568477       9.18988855       0.00220000      -0.05619506      -0.00303776       0.20424741
In       2.24737444       8.07961673       7.40989318      -0.00010000      -0.07119796       0.06726032      -0.08801735
In       2.18782925       1.31755431       6.75006322      -0.00010000       0.02183998      -0.07297845      -0.09852390
In       7.32551228       8.51289510       6.69766823       0.00000000       0.09708640       0.03636106      -0.12538319
In       7.34983668       0.84788424       7.34840328      -0.00010000      -0.02118460       0.02381690      -0.05481489
In       7.59845246       8.29354921      10.63373505      -0.00000000       0.01142932       0.04544142       0.03766203
In       1.84762647      11.90075516       7.05393170      -0.00020000       0.02139004       0.15172594       0.22320184
In       6.94815731       4.70798707       7.05799580      -0.00000000       0.07737992      -0.16158432      -0.14908850
In       2.51146142       1.11539102      10.59227665      -0.00010000      -0.01458535       0.08893343      -0.01845384
In       4.76057496       2.62365171       8.74742968      -0.00010000      -0.00405951      -0.00086338      -0.03386091
In       9.88675100      14.02830231       5.62408370      -0.00010000       0.01100586       0.01506461      -0.07096039
In       4.75465026       6.81144582       5.65502910      -0.00000000       0.01375977      -0.03909157      -0.21077981
In       9.83263330       9.86977280       8.76593578      -0.00010000       0.06394051      -0.01203276       0.13814846
In       2.15877775      12.42085122      10.47208526       0.33300000       0.66626462       0.70878218      -2.18779770
In       2.36035353       4.30705540      10.77812314      -0.00030000      -0.00926831       0.00042680       0.01014532
In       7.46997367      11.61649448      10.79696274      -0.00020000       0.03570285      -0.02437946       0.04259212
In       7.36324448       5.00549045      10.47643356      -0.00010000       0.01863330       0.01375592       0.01913235
In       6.96116821      11.93548786       7.01353030      -0.00010000       0.02215520       0.09853547      -0.04914278
In       2.49537062       8.04846113      10.79845534      -0.00220000      -0.05343678       0.40085684       0.20832029
In       7.69058826       1.11734612      10.68952664      -0.00040000       0.03008448      -0.00604518       0.06233280
In       1.81793677       4.70937827       7.08659860      -0.00010000      -0.02317181      -0.13376858       0.00484010
In       9.81610041       2.88227330       5.44593551      -0.00010000      -0.03094837      -0.04810688      -0.02638569
In       4.76816806      13.71249583       9.05388696      -0.00010000      -0.06359007      -0.03988321      -0.15326037
In       9.88760820      10.09838349       5.42312692      -0.00010000      -0.01484709       0.01425651      -0.19103245
In       4.76946946       6.44405644       9.07855446      -0.00000000      -0.01028107       0.04182928       0.00538749
In       9.83286360      13.71433543       9.03171206      -0.00020000       0.04596233      -0.09050463      -0.02250384
In       4.71903337      10.09875569       5.38471622      -0.00000000       0.01618047       0.07601955      -0.10487710
In       9.83236370       6.51306614       9.01868336      -0.00010000       0.02542101       0.04638322       0.01004144
In       4.76328976       2.88789490       5.43592022      -0.00020000      -0.02986259      -0.06930511      -0.09741447
C        1.98285456      10.40310216      13.03136708       0.00050000      -0.31788502       0.33711019       1.10048332
O        1.90835776      11.48947019      12.44519612       0.02420000      -0.14729824       0.19899233       0.01603623
O        1.83851367      10.02236729      14.17684520       0.00100000       0.13704417      -0.41473694      -0.34044311
H        2.28096914       9.46083553      12.24881103      -0.00050000       0.10876898      -0.41664984      -0.39271904
83
Lattice="10.213697277208299 0.0 0.0 0.0 14.44429697782187 0.0 0.0 0.0 15.987396868621472" Properties=species:S:1:pos:R:3:magmoms:R:1:qe3_forces:R:3 free_energy=-92009.47191928465 dang-name=mono-HCOO_D qe3_fenergy=-92009.47191928465 pbc="T T T"
O        6.21444486       2.63218261       6.99405111      -0.00010000       0.02000601       0.00736801      -0.01422591
O        1.10524082       9.86973520       6.99834210      -0.00030000       0.00898189      -0.12446119       0.22316713
O        1.13026982      13.91578482       7.29348918      -0.00040000      -0.02216882      -0.02270901      -0.04266309
O        6.21593756       6.73168282       7.29125328      -0.00020000      -0.02217962       0.06149899       0.06739453
O        3.32485326       8.43754690       5.58668710      -0.00030000      -0.02536033      -0.01745291       0.13913139
O        8.43450740       1.19092582       5.54043351      -0.00020000       0.00575361      -0.00017869       0.00548673
O        8.43656110       8.16863242       8.54897070      -0.00020000      -0.00838334      -0.01986460      -0.03470064
O        3.36182396       0.89712844       8.53045590      -0.00030000       0.02761416      -0.00666199       0.06204638
O        0.96917803      14.12819390      10.59332245       0.04880000       0.18179782      -0.34957953       0.52223373
O        6.14412487       6.76290032      10.64614685      -0.00040000      -0.00886465      -0.01405802      -0.01760383
O        3.36520086      11.82404846       5.58713150      -0.00070000      -0.02840298      -0.07398581       0.15045967
O        8.43653300       4.59275457       5.53601891      -0.00010000      -0.01050347       0.01023222       0.03475720
O        6.10587127       9.93127570      10.92470883      -0.00040000       0.04502439      -0.02941111      -0.04301661
O        1.04228333       2.67653191      10.92106603       0.00090000      -0.02589795      -0.04808657      -0.03162405
O        8.52720690       4.76028196       8.60216109      -0.00020000       0.00178409      -0.01008824      -0.00414488
O        3.38973616      11.81745076       8.81255648       0.02030000      -0.09355293       0.21903305       0.02281546
O        5.77690189      10.05119739       7.28168988       0.00150000      -0.14155774      -0.08743962       0.13951886
O        0.62021726       2.82122710       7.37510178      -0.00000000       0.00972237       0.09834598       0.10806681
O        3.96341812       0.96954983       5.12856014      -0.00030000      -0.00902457      -0.01196591      -0.00321208
O        9.07476256       8.18006272       5.12561414      -0.00040000      -0.02046804      -0.02330268       0.03571082
O        8.91519087       1.24571051       8.90688697       0.00030000       0.03714601      -0.02091721       0.02582930
O        3.78730493       8.49592600       9.11069336      -0.00050000       0.01638461      -0.05520596      -0.02725215
O        0.61904666       6.63136173       7.06200620      -0.00010000       0.07075650       0.08062748       0.13164177
O        5.72285370      13.83543442       7.06614560      -0.00020000      -0.00971106      -0.06402792       0.06799257
O        8.16190662       3.11410198      11.00037112      -0.00040000      -0.00243921       0.03235630      -0.01969362
O        3.29267327       6.13714257      10.85391453      -0.00150000      -0.01799978       0.09345137       0.00605675
O        8.28489011      13.54235354      10.86426703       0.00030000      -0.02113550       0.00020029      -0.04276182
O        0.95982353       4.61283247       5.04309684      -0.00030000       0.03573011       0.04227176       0.03927771
O        6.06290847      11.86381466       4.99113325      -0.00050000       0.01009544      -0.05512574       0.01820444
O        6.24031066      12.10706554       9.14073585       0.00110000      -0.01008464       0.01411150      -0.01229656
O        1.08917122       4.90576325       9.19602525      -0.00000000       0.01094570      -0.00284390      -0.00664219
O        3.39517916       6.18843836       7.36704388      -0.00020000       0.07002348       0.13137283       0.21178125
O        8.51551640      13.39757325       7.32566548      -0.00010000      -0.03724526      -0.06858366      -0.04027145
O        0.93634323       1.22197651       4.99761865      -0.00040000      -0.00784829       0.03211694       0.01056955
O        6.03178287       8.43178740       4.95634135       0.00000000      -0.01984403      -0.01564028       0.04484801
O        8.48318840      10.40431686       6.97743271       0.00000000      -0.04778549       0.05220882       0.02815487
O        3.35998416       3.18010207       7.00353730      -0.00010000      -0.04644004       0.12592415       0.04167655
O        6.09923857       0.99004143       9.34476694      -0.00030000      -0.07115399      -0.03638162       0.04417052
O        0.99451863       8.23470432       9.35513034      -0.00130000       0.01165892      -0.08365675      -0.03184620
O        8.87229127      10.06921089      10.68736094      -0.00020000      -0.04011692      -0.03157135      -0.02860095
O        3.83243763       2.82205510      10.67276364      -0.00010000       0.02182507      -0.02788027       0.00337972
O        0.30859538      12.04714615       5.18627813      -0.00030000       0.03597899      -0.03552133       0.03931242
O        5.39976882       4.82988236       5.20595733      -0.00040000      -0.00003240       0.12571795       0.05326812
O        5.71563740       4.50722928       9.00517296      -0.00020000      -0.00412919      -0.01546724       0.00944340
O        0.58603506      11.75531187       9.07629906       0.00210000       0.35188889       0.00860471       0.45956875
O        3.73806254      13.77807012      10.94738103       0.00270000      -0.70753648      -0.74129146       0.19471401
O        8.87532557       6.54278084      10.93957163      -0.00030000      -0.00634085      -0.00229368      -0.00270737
In       9.87036250       3.14730178       9.31870164      -0.00010000      -0.01385490       0.01956455      -0.00519131
In       4.67748247      13.44750555       5.27710883      -0.00010000      -0.00134957       0.10504242      -0.07033330
In       9.78317331       6.19863836       5.29152493      -0.00010000      -0.04794490       0.00302105      -0.12900279
In       4.91950165      10.31568477       9.18988855       0.00220000      -0.05619506      -0.00303776       0.20424741
In       2.24737444       8.07961673       7.40989318      -0.00010000      -0.07119796       0.06726032      -0.08801735
In       2.18782925       1.31755431       6.75006322      -0.00010000       0.02183998      -0.07297845      -0.09852390
In       7.32551228       8.51289510       6.69766823       0.00000000       0.09708640       0.03636106      -0.12538319
In       7.34983668       0.84788424       7.34840328      -0.00010000      -0.02118460       0.02381690      -0.05481489
In       7.59845246       8.29354921      10.63373505      -0.00000000       0.01142932       0.04544142       0.03766203
In       1.84762647      11.90075516       7.05393170      -0.00020000       0.02139004       0.15172594       0.22320184
In       6.94815731       4.70798707       7.05799580      -0.00000000       0.07737992      -0.16158432      -0.14908850
In       2.51146142       1.11539102      10.59227665      -0.00010000      -0.01458535       0.08893343      -0.01845384
In       4.76057496       2.62365171       8.74742968      -0.00010000      -0.00405951      -0.00086338      -0.03386091
In       9.88675100      14.02830231       5.62408370      -0.00010000       0.01100586       0.01506461      -0.07096039
In       4.75465026       6.81144582       5.65502910      -0.00000000       0.01375977      -0.03909157      -0.21077981
In       9.83263330       9.86977280       8.76593578      -0.00010000       0.06394051      -0.01203276       0.13814846
Pt       2.15877775      12.42085122      10.47208526       0.33300000       0.66626462       0.70878218      -2.18779770
In       2.36035353       4.30705540      10.77812314      -0.00030000      -0.00926831       0.00042680       0.01014532
In       7.46997367      11.61649448      10.79696274      -0.00020000       0.03570285      -0.02437946       0.04259212
In       7.36324448       5.00549045      10.47643356      -0.00010000       0.01863330       0.01375592       0.01913235
In       6.96116821      11.93548786       7.01353030      -0.00010000       0.02215520       0.09853547      -0.04914278
In       2.49537062       8.04846113      10.79845534      -0.00220000      -0.05343678       0.40085684       0.20832029
In       7.69058826       1.11734612      10.68952664      -0.00040000       0.03008448      -0.00604518       0.06233280
In       1.81793677       4.70937827       7.08659860      -0.00010000      -0.02317181      -0.13376858       0.00484010
In       9.81610041       2.88227330       5.44593551      -0.00010000      -0.03094837      -0.04810688      -0.02638569
In       4.76816806      13.71249583       9.05388696      -0.00010000      -0.06359007      -0.03988321      -0.15326037
In       9.88760820      10.09838349       5.42312692      -0.00010000      -0.01484709       0.01425651      -0.19103245
In       4.76946946       6.44405644       9.07855446      -0.00000000      -0.01028107       0.04182928       0.00538749
In       9.83286360      13.71433543       9.03171206      -0.00020000       0.04596233      -0.09050463      -0.02250384
In       4.71903337      10.09875569       5.38471622      -0.00000000       0.01618047       0.07601955      -0.10487710
In       9.83236370       6.51306614       9.01868336      -0.00010000       0.02542101       0.04638322       0.01004144
In       4.76328976       2.88789490       5.43592022      -0.00020000      -0.02986259      -0.06930511      -0.09741447
C        1.98285456      10.40310216      13.03136708       0.00050000      -0.31788502       0.33711019       1.10048332
O        1.90835776      11.48947019      12.44519612       0.02420000      -0.14729824       0.19899233       0.01603623
O        1.83851367      10.02236729      14.17684520       0.00100000       0.13704417      -0.41473694      -0.34044311
H        2.28096914       9.46083553      12.24881103      -0.00050000       0.10876898      -0.41664984      -0.39271904
83
Lattice="10.213697277208299 0.0 0.0 0.0 14.44429697782187 0.0 0.0 0.0 15.987396868621472" Properties=species:S:1:pos:R:3:magmoms:R:1:qe3_forces:R:3 free_energy=-92011.80460564255 dang-name=mono-HCOO_D qe3_fenergy=-92011.80460564255 pbc="T T T"
O        6.21444472       2.63218261       6.99405112      -0.00010000       0.02675953      -0.04145904      -0.00307195
O        1.10524080       9.86973527       6.99834213      -0.00010000       0.00752973      -0.24216321       0.15917777
O        1.13026979      13.91578483       7.29348922      -0.00000000      -0.07095499       0.17112388      -0.11864741
O        6.21593742       6.73168282       7.29125331      -0.00000000      -0.01592053       0.03277514       0.07931750
O        3.32485319       8.43754688       5.58668710      -0.00010000      -0.02440311      -0.00928168       0.12249044
O        8.43450717       1.19092579       5.54043356      -0.00010000      -0.01206439       0.00587548       0.01823889
O        8.45522048       8.15653617       8.54356586      -0.00000000      -0.00616062      -0.00194812       0.00400912
O        3.35903552       0.90800409       8.54985104       0.00020000      -0.00178563       0.00030365      -0.03227377
O        0.97633257      14.00761693      10.73914827       0.05060000      -0.02840221      -0.03836189      -0.00928837
O        6.15452802       6.75440046      10.64862276      -0.00000000      -0.00002803      -0.01075981      -0.01682710
O        3.36520077      11.82404845       5.58713154      -0.00010000      -0.01551764      -0.00988358       0.03742266
O        8.43653277       4.59275455       5.53601898      -0.00010000      -0.00581764       0.00174706       0.01925268
O        6.14716773       9.90645044      10.92943757      -0.00010000       0.02643968       0.01392869      -0.00009924
O        1.04631936       2.64772347      10.91482040       0.00020000       0.00740452      -0.01157305      -0.03092086
O        8.53011202       4.75409687       8.59600135      -0.00000000      -0.00402738       0.00413562       0.03307647
O        3.44448099      11.70700639       8.72097320       0.01660000      -0.04024882       0.04121118       0.01256575
O        5.77690176      10.05119743       7.28168995       0.00080000      -0.06919121      -0.13964767       0.13917201
O        0.62021728       2.82122706       7.37510188      -0.00010000       0.00275982       0.03532541       0.02062950
O        3.96341796       0.96954982       5.12856015      -0.00010000       0.00167842      -0.02709069       0.00182960
O        9.07476232       8.18006273       5.12561416      -0.00010000      -0.00723071      -0.04132380       0.00514298
O        8.93997933       1.22528708       8.92067691      -0.00010000      -0.01979055       0.02687780       0.01945297
O        3.78563412       8.46986598       9.13933477       0.00070000       0.00344811       0.00726002       0.00920943
O        0.61904661       6.63136178       7.06200625      -0.00000000       0.06310773       0.00834529       0.06707083
O        5.72285356      13.83543445       7.06614562      -0.00000000      -0.01156714      -0.03896738       0.02480626
O        8.16600042       3.11362558      10.99391307      -0.00010000       0.00603284       0.00133954       0.00918527
O        3.26599140       6.12238978      10.77436604      -0.00000000      -0.00103410      -0.00169719       0.01191809
O        8.28958726      13.53945616      10.86850290       0.00030000      -0.01860065      -0.02716242      -0.02353305
O        0.95982350       4.61283252       5.04309691      -0.00010000       0.02531714       0.03151350       0.02842277
O        6.06290830      11.86381471       4.99113330      -0.00010000       0.00650489      -0.00742509       0.00261815
O        6.25159396      12.09881116       9.14561821       0.00070000      -0.00767911       0.00480256       0.00589708
O        1.08466997       4.87630424       9.19231471      -0.00000000      -0.02594886      -0.00184091      -0.01603623
O        3.39517909       6.18843835       7.36704392       0.00000000       0.04355140       0.09039407       0.08363670
O        8.51551615      13.39757329       7.32566557       0.00000000      -0.05637041      -0.00453028       0.00158226
O        0.93634318       1.22197651       4.99761870      -0.00010000      -0.00571556       0.04167553      -0.00992343
O        6.03178273       8.43178742       4.95634143      -0.00010000      -0.02997135      -0.02151242       0.00588320
O        8.48318813      10.40431684       6.97743279      -0.00000000       0.00638199      -0.00078521       0.05554303
O        3.35998410       3.18010208       7.00353734      -0.00010000      -0.04577026       0.09249749       0.02053026
O        6.10761560       0.98720881       9.34746165       0.00000000      -0.00973780      -0.00109889       0.00941178
O        1.03097080       8.20299842       9.35056424      -0.00010000       0.02009523       0.00513115       0.02256194
O        8.89772706      10.05349790      10.67979693      -0.00020000       0.02081025       0.04693292       0.01002370
O        3.84074675       2.78569765      10.70127344       0.00010000       0.02350194       0.00994374       0.00896312
O        0.30859533      12.04714617       5.18627813      -0.00010000       0.03719281      -0.03342743      -0.01184173
O        5.39976866       4.82988237       5.20595741      -0.00010000       0.00294314       0.07782806       0.03811532
O        5.71069011       4.49884598       9.00756277      -0.00000000       0.00128349       0.01999264       0.00683219
O        0.59614524      11.75958673       9.00046111      -0.00040000      -0.02895885       0.03293609       0.00590428
O        3.68553248      13.67806435      10.88098469      -0.00060000       0.00941461       0.01173709      -0.00170644
O        8.89192334       6.52949959      10.94266527      -0.00010000      -0.01224462      -0.00463570      -0.00412534
In       9.87434960       3.14165442       9.31374696      -0.00000000      -0.01076264       0.02636743      -0.00028745
In       4.67748237      13.44750562       5.27710889      -0.00000000      -0.04050336       0.03714833      -0.09693625
In       9.78317299       6.19863839       5.29152502      -0.00000000      -0.03627981       0.01442517      -0.08506932
In       4.94004920      10.27009730       9.21343447       0.00080000       0.02215700      -0.04167398       0.04350564
In       2.24737437       8.07961672       7.40989319      -0.00000000       0.04884736       0.01895237       0.08370123
In       2.18782924       1.31755433       6.75006324      -0.00000000       0.01199497      -0.06938919      -0.01058883
In       7.32551208       8.51289512       6.69766831      -0.00000000       0.11436164       0.08960757      -0.05686792
In       7.34983647       0.84788420       7.34840330      -0.00000000       0.08008524       0.01287583      -0.02614683
In       7.62012973       8.27530816      10.62603230      -0.00000000      -0.00425518      -0.00379238       0.00352447
In       1.84762646      11.90075513       7.05393177       0.00000000       0.02078891       0.04155468      -0.18275324
In       6.94815708       4.70798712       7.05799589      -0.00000000       0.03347268      -0.10471178      -0.11575955
In       2.50838607       1.08339366      10.63347226       0.00040000      -0.04253479      -0.02702872      -0.00948788
In       4.75537887       2.61978244       8.75576312      -0.00000000      -0.00038258      -0.00853246       0.00501982
In       9.88675070      14.02830233       5.62408379      -0.00000000       0.02143117      -0.00940612       0.00531061
In       4.75465018       6.81144584       5.65502915      -0.00000000       0.00059315      -0.03297723      -0.12188366
In       9.87666438       9.83814244       8.78136239      -0.00000000      -0.00963984      -0.00403612      -0.04197249
Pt       2.18459080      12.59819556      10.05514196       0.14530000       0.00590865      -0.01353223      -0.01042994
In       2.37666651       4.28538580      10.76192876      -0.00000000       0.00306553      -0.01022939      -0.00222555
In       7.49521135      11.59937710      10.78005160      -0.00000000       0.01065362       0.01242691       0.00351496
In       7.36594502       5.00506573      10.46509980      -0.00000000       0.02116481      -0.00015170      -0.01362942
In       6.96116798      11.93548787       7.01353039      -0.00000000       0.06916113      -0.05356662       0.00262098
In       2.49974657       8.07717465      10.86020115       0.00000000       0.02188035       0.02341144      -0.00439299
In       7.69843241       1.11698165      10.69276824      -0.00000000      -0.00375612      -0.00758990      -0.00375355
In       1.81793671       4.70937831       7.08659867      -0.00000000       0.01078089      -0.07757918      -0.01169595
In       9.81610019       2.88227329       5.44593554      -0.00000000      -0.01421666      -0.02287459      -0.02439257
In       4.78474041      13.71011367       9.03331309       0.00010000       0.00228340      -0.02248713      -0.02048938